# vtk DataFile Version 3.0
vtk output
ASCII
DATASET UNSTRUCTURED_GRID
FIELD FieldData 3
ElementBlockIds 1 1 int
1 
QA_Records 33 12 char
67 85 66 73 84 0 0 0 0 
0 0 0 0 0 0 0 0 0 
0 0 0 0 0 0 0 0 0 
0 0 0 0 0 0 49 46 49 
49 46 50 45 50 53 0 0 0 
0 0 0 0 0 0 0 0 0 
0 0 0 0 0 0 0 0 0 
0 0 0 48 50 47 48 54 47 
57 54 0 0 0 0 0 0 0 
0 0 0 0 0 0 0 0 0 
0 0 0 0 0 0 0 0 0 
49 52 58 52 53 58 52 56 0 
0 0 0 0 0 0 0 0 0 
0 0 0 0 0 0 0 0 0 
0 0 0 0 0 0 103 117 97 
99 97 109 111 108 0 0 0 0 
0 0 0 0 0 0 0 0 0 
0 0 0 0 0 0 0 0 0 
0 0 0 82 101 118 32 36 82 
101 118 105 115 105 111 110 58 32 
50 46 50 48 32 36 0 0 0 
0 0 0 0 0 0 0 0 0 
57 55 47 48 51 47 50 54 0 
0 0 0 0 0 0 0 0 0 
0 0 0 0 0 0 0 0 0 
0 0 0 0 0 0 49 51 58 
52 53 58 52 57 0 0 0 0 
0 0 0 0 0 0 0 0 0 
0 0 0 0 0 0 0 0 0 
0 0 0 115 97 108 115 97 0 
0 0 0 0 0 0 0 0 0 
0 0 0 0 0 0 0 0 0 
0 0 0 0 0 0 0 0 0 
80 114 101 112 97 114 101 100 0 
0 0 0 0 0 0 0 0 0 
0 0 0 0 0 0 0 0 0 
0 0 0 0 0 0 57 55 47 
48 51 47 50 54 0 0 0 0 
0 0 0 0 0 0 0 0 0 
0 0 0 0 0 0 0 0 0 
0 0 0 49 51 58 52 53 58 
52 57 0 0 0 0 0 0 0 
0 0 0 0 0 0 0 0 0 
0 0 0 0 0 0 0 0 0 

Info_Records 81 10 char
83 97 108 115 97 58 32 82 101 
97 99 116 105 110 103 32 102 108 
111 119 32 99 111 100 101 32 102 
111 114 32 77 73 77 68 32 109 
97 99 104 105 110 101 115 0 0 
0 0 0 0 0 0 0 0 0 
0 0 0 0 0 0 0 0 0 
0 0 0 0 0 0 0 0 0 
0 0 0 0 0 0 0 0 0 
115 97 108 115 97 58 9 0 0 
0 0 0 0 0 0 0 0 0 
0 0 0 0 0 0 0 0 0 
0 0 0 0 0 0 0 0 0 
0 0 0 0 0 0 0 0 0 
0 0 0 0 0 0 0 0 0 
0 0 0 0 0 0 0 0 0 
0 0 0 0 0 0 0 0 0 
0 0 0 0 0 0 0 0 0 
70 69 77 32 73 110 112 117 116 
32 102 105 108 101 58 9 101 109 
95 55 107 46 101 120 111 73 73 
0 0 0 0 0 0 0 0 0 
0 0 0 0 0 0 0 0 0 
0 0 0 0 0 0 0 0 0 
0 0 0 0 0 0 0 0 0 
0 0 0 0 0 0 0 0 0 
0 0 0 0 0 0 0 0 0 
78 117 109 32 117 110 107 115 58 
9 48 0 0 0 0 0 0 0 
0 0 0 0 0 0 0 0 0 
0 0 0 0 0 0 0 0 0 
0 0 0 0 0 0 0 0 0 
0 0 0 0 0 0 0 0 0 
0 0 0 0 0 0 0 0 0 
0 0 0 0 0 0 0 0 0 
0 0 0 0 0 0 0 0 0 
67 80 85 32 116 105 109 101 58 
9 48 46 50 53 48 48 48 48 
0 0 0 0 0 0 0 0 0 
0 0 0 0 0 0 0 0 0 
0 0 0 0 0 0 0 0 0 
0 0 0 0 0 0 0 0 0 
0 0 0 0 0 0 0 0 0 
0 0 0 0 0 0 0 0 0 
0 0 0 0 0 0 0 0 0 
115 97 108 115 97 58 9 0 0 
0 0 0 0 0 0 0 0 0 
0 0 0 0 0 0 0 0 0 
0 0 0 0 0 0 0 0 0 
0 0 0 0 0 0 0 0 0 
0 0 0 0 0 0 0 0 0 
0 0 0 0 0 0 0 0 0 
0 0 0 0 0 0 0 0 0 
0 0 0 0 0 0 0 0 0 
115 97 108 115 97 58 9 0 0 
0 0 0 0 0 0 0 0 0 
0 0 0 0 0 0 0 0 0 
0 0 0 0 0 0 0 0 0 
0 0 0 0 0 0 0 0 0 
0 0 0 0 0 0 0 0 0 
0 0 0 0 0 0 0 0 0 
0 0 0 0 0 0 0 0 0 
0 0 0 0 0 0 0 0 0 
115 97 108 115 97 58 9 0 0 
0 0 0 0 0 0 0 0 0 
0 0 0 0 0 0 0 0 0 
0 0 0 0 0 0 0 0 0 
0 0 0 0 0 0 0 0 0 
0 0 0 0 0 0 0 0 0 
0 0 0 0 0 0 0 0 0 
0 0 0 0 0 0 0 0 0 
0 0 0 0 0 0 0 0 0 
115 97 108 115 97 58 9 0 0 
0 0 0 0 0 0 0 0 0 
0 0 0 0 0 0 0 0 0 
0 0 0 0 0 0 0 0 0 
0 0 0 0 0 0 0 0 0 
0 0 0 0 0 0 0 0 0 
0 0 0 0 0 0 0 0 0 
0 0 0 0 0 0 0 0 0 
0 0 0 0 0 0 0 0 0 
115 97 108 115 97 58 9 0 0 
0 0 0 0 0 0 0 0 0 
0 0 0 0 0 0 0 0 0 
0 0 0 0 0 0 0 0 0 
0 0 0 0 0 0 0 0 0 
0 0 0 0 0 0 0 0 0 
0 0 0 0 0 0 0 0 0 
0 0 0 0 0 0 0 0 0 
0 0 0 0 0 0 0 0 0 

POINTS 434 float
0 -3.60667 10.16 0 -3.60667 9.22645 0 -3.81 10.16 
0 -3.81 9.22645 0 -3.40333 10.16 0 -3.40333 9.22645 
0 -3.2 10.16 0 -3.2 9.22645 0 3.60667 10.16 
0 3.81 10.16 0 3.60667 9.22645 0 3.81 9.22645 
0 3.40333 10.16 0 3.40333 9.22645 0 3.2 10.16 
0 3.2 9.22645 0 -3.81 8.33024 0 -3.60667 8.33024 
0 -3.40333 8.33024 0 -3.2 8.33024 0 3.81 8.33024 
0 3.60667 8.33024 0 3.40333 8.33024 0 3.2 8.33024 
0 -3.81 7.46988 0 -3.60667 7.46988 0 -3.40333 7.46988 
0 -3.2 7.46988 0 3.81 7.46988 0 3.60667 7.46988 
0 3.40333 7.46988 0 3.2 7.46988 0 -3.81 6.64393 
0 -3.60667 6.64393 0 -3.40333 6.64393 0 -3.2 6.64393 
0 3.81 6.64393 0 3.60667 6.64393 0 3.40333 6.64393 
0 3.2 6.64393 0 -3.81 5.85102 0 -3.60667 5.85102 
0 -3.40333 5.85102 0 -3.2 5.85102 0 3.81 5.85102 
0 3.60667 5.85102 0 3.40333 5.85102 0 3.2 5.85102 
0 -3.81 5.08983 0 -3.60667 5.08983 0 -3.40333 5.08983 
0 -3.2 5.08983 0 3.81 5.08983 0 3.60667 5.08983 
0 3.40333 5.08983 0 3.2 5.08983 0 -3.81 4.35908 
0 -3.60667 4.35908 0 -3.40333 4.35908 0 -3.2 4.35908 
0 3.81 4.35908 0 3.60667 4.35908 0 3.40333 4.35908 
0 3.2 4.35908 0 -3.81 3.65757 0 -3.60667 3.65757 
0 -3.40333 3.65757 0 -3.2 3.65757 0 3.81 3.65757 
0 3.60667 3.65757 0 3.40333 3.65757 0 3.2 3.65757 
0 -3.81 2.98411 0 -3.60667 2.98411 0 -3.40333 2.98411 
0 -3.2 2.98411 0 3.81 2.98411 0 3.60667 2.98411 
0 3.40333 2.98411 0 3.2 2.98411 0 -3.81 2.3376 
0 -3.60667 2.3376 0 -3.40333 2.3376 0 -3.2 2.3376 
0 3.81 2.3376 0 3.60667 2.3376 0 3.40333 2.3376 
0 3.2 2.3376 0 -3.81 1.71694 0 -3.60667 1.71694 
0 -3.40333 1.71694 0 -3.2 1.71694 0 3.81 1.71694 
0 3.60667 1.71694 0 3.40333 1.71694 0 3.2 1.71694 
0 -3.81 1.12111 0 -3.60667 1.12111 0 -3.40333 1.12111 
0 -3.2 1.12111 0 3.81 1.12111 0 3.60667 1.12111 
0 3.40333 1.12111 0 3.2 1.12111 0 -3.64972 1 
0 -3.81 1 0 -3.60667 1 0 -3.44639 1 
0 -3.40333 1 0 -3.24305 1 0 -3.2 1 
0 3.81 1 0 3.64972 1 0 3.60667 1 
0 3.44639 1 0 3.40333 1 0 3.24305 1 
0 3.2 1 0 -2.66667 10.16 0 -2.66667 9.22645 
0 -2.13333 10.16 0 -2.13333 9.22645 0 -1.6 10.16 
0 -1.6 9.22645 0 -1.06667 10.16 0 -1.06667 9.22645 
0 -0.533333 10.16 0 -0.533333 9.22645 0 4.44089e-16 10.16 
0 3.88578e-16 9.22645 0 0.533333 10.16 0 0.533333 9.22645 
0 1.06667 10.16 0 1.06667 9.22645 0 1.6 10.16 
0 1.6 9.22645 0 2.13333 10.16 0 2.13333 9.22645 
0 2.66667 10.16 0 2.66667 9.22645 0 -2.66667 8.33024 
0 -2.13333 8.33024 0 -1.6 8.33024 0 -1.06667 8.33024 
0 -0.533333 8.33024 0 3.33067e-16 8.33024 0 0.533333 8.33024 
0 1.06667 8.33024 0 1.6 8.33024 0 2.13333 8.33024 
0 2.66667 8.33024 0 -2.66667 7.46988 0 -2.13333 7.46988 
0 -1.6 7.46988 0 -1.06667 7.46988 0 -0.533333 7.46988 
0 2.77556e-16 7.46988 0 0.533333 7.46988 0 1.06667 7.46988 
0 1.6 7.46988 0 2.13333 7.46988 0 2.66667 7.46988 
0 -2.66667 6.64393 0 -2.13333 6.64393 0 -1.6 6.64393 
0 -1.06667 6.64393 0 -0.533333 6.64393 0 2.22045e-16 6.64393 
0 0.533333 6.64393 0 1.06667 6.64393 0 1.6 6.64393 
0 2.13333 6.64393 0 2.66667 6.64393 0 -2.66667 5.85102 
0 -2.13333 5.85102 0 -1.6 5.85102 0 -1.06667 5.85102 
0 -0.533333 5.85102 0 1.11022e-16 5.85102 0 0.533333 5.85102 
0 1.06667 5.85102 0 1.6 5.85102 0 2.13333 5.85102 
0 2.66667 5.85102 0 -2.66667 5.08983 0 -2.13333 5.08983 
0 -1.6 5.08983 0 -1.06667 5.08983 0 -0.533333 5.08983 
0 1.11022e-16 5.08983 0 0.533333 5.08983 0 1.06667 5.08983 
0 1.6 5.08983 0 2.13333 5.08983 0 2.66667 5.08983 
0 -2.66667 4.35908 0 -2.13333 4.35908 0 -1.6 4.35908 
0 -1.06667 4.35908 0 -0.533333 4.35908 0 0 4.35908 
0 0.533333 4.35908 0 1.06667 4.35908 0 1.6 4.35908 
0 2.13333 4.35908 0 2.66667 4.35908 0 -2.66667 3.65757 
0 -2.13333 3.65757 0 -1.6 3.65757 0 -1.06667 3.65757 
0 -0.533333 3.65757 0 0 3.65757 0 0.533333 3.65757 
0 1.06667 3.65757 0 1.6 3.65757 0 2.13333 3.65757 
0 2.66667 3.65757 0 -2.66667 2.98411 0 -2.13333 2.98411 
0 -1.6 2.98411 0 -1.06667 2.98411 0 -0.533333 2.98411 
0 -2.22045e-16 2.98411 0 0.533333 2.98411 0 1.06667 2.98411 
0 1.6 2.98411 0 2.13333 2.98411 0 2.66667 2.98411 
0 -2.66667 2.3376 0 -2.13333 2.3376 0 -1.6 2.3376 
0 -1.06667 2.3376 0 -0.533333 2.3376 0 -2.22045e-16 2.3376 
0 0.533333 2.3376 0 1.06667 2.3376 0 1.6 2.3376 
0 2.13333 2.3376 0 2.66667 2.3376 0 -2.66667 1.71694 
0 -2.13333 1.71694 0 -1.6 1.71694 0 -1.06667 1.71694 
0 -0.533333 1.71694 0 -2.22045e-16 1.71694 0 0.533333 1.71694 
0 1.06667 1.71694 0 1.6 1.71694 0 2.13333 1.71694 
0 2.66667 1.71694 0 -2.66667 1.12111 0 -2.13333 1.12111 
0 -1.6 1.12111 0 -1.06667 1.12111 0 -0.533333 1.12111 
0 -2.22045e-16 1.12111 0 0.533333 1.12111 0 1.06667 1.12111 
0 1.6 1.12111 0 2.13333 1.12111 0 2.66667 1.12111 
0 -2.77959 1 0 -2.66667 1 0 -2.24626 1 
0 -2.13333 1 0 -1.71293 1 0 -1.6 1 
0 -1.17959 1 0 -1.06667 1 0 -0.646259 1 
0 -0.533333 1 0 -0.112926 1 0 -2.6906e-16 1 
0 0.420407 1 0 0.533333 1 0 0.953741 1 
0 1.06667 1 0 1.48707 1 0 1.6 1 
0 2.02041 1 0 2.13333 1 0 2.55374 1 
0 2.66667 1 0 3.08707 1 0 5.75 10.16 
0 5.75 9.22645 0 5.362 10.16 0 5.362 9.22645 
0 -5.75 10.16 0 -5.362 10.16 0 -5.75 9.22645 
0 -5.362 9.22645 0 4.974 10.16 0 4.974 9.22645 
0 -4.974 10.16 0 -4.974 9.22645 0 4.586 10.16 
0 4.586 9.22645 0 -4.586 10.16 0 -4.586 9.22645 
0 4.198 10.16 0 4.198 9.22645 0 -4.198 10.16 
0 -4.198 9.22645 0 5.362 8.33024 0 5.75 8.33024 
0 -5.362 8.33024 0 -5.75 8.33024 0 4.974 8.33024 
0 -4.974 8.33024 0 4.586 8.33024 0 -4.586 8.33024 
0 4.198 8.33024 0 -4.198 8.33024 0 5.362 7.46988 
0 5.75 7.46988 0 -5.362 7.46988 0 -5.75 7.46988 
0 4.974 7.46988 0 -4.974 7.46988 0 4.586 7.46988 
0 -4.586 7.46988 0 4.198 7.46988 0 -4.198 7.46988 
0 5.362 6.64393 0 5.75 6.64393 0 -5.362 6.64393 
0 -5.75 6.64393 0 4.974 6.64393 0 -4.974 6.64393 
0 4.586 6.64393 0 -4.586 6.64393 0 4.198 6.64393 
0 -4.198 6.64393 0 5.362 5.85102 0 5.75 5.85102 
0 -5.362 5.85102 0 -5.75 5.85102 0 4.974 5.85102 
0 -4.974 5.85102 0 4.586 5.85102 0 -4.586 5.85102 
0 4.198 5.85102 0 -4.198 5.85102 0 5.362 5.08983 
0 5.75 5.08983 0 -5.362 5.08983 0 -5.75 5.08983 
0 4.974 5.08983 0 -4.974 5.08983 0 4.586 5.08983 
0 -4.586 5.08983 0 4.198 5.08983 0 -4.198 5.08983 
0 5.362 4.35908 0 5.75 4.35908 0 -5.362 4.35908 
0 -5.75 4.35908 0 4.974 4.35908 0 -4.974 4.35908 
0 4.586 4.35908 0 -4.586 4.35908 0 4.198 4.35908 
0 -4.198 4.35908 0 5.362 3.65757 0 5.75 3.65757 
0 -5.362 3.65757 0 -5.75 3.65757 0 4.974 3.65757 
0 -4.974 3.65757 0 4.586 3.65757 0 -4.586 3.65757 
0 4.198 3.65757 0 -4.198 3.65757 0 5.362 2.98411 
0 5.75 2.98411 0 -5.362 2.98411 0 -5.75 2.98411 
0 4.974 2.98411 0 -4.974 2.98411 0 4.586 2.98411 
0 -4.586 2.98411 0 4.198 2.98411 0 -4.198 2.98411 
0 5.362 2.3376 0 5.75 2.3376 0 -5.362 2.3376 
0 -5.75 2.3376 0 4.974 2.3376 0 -4.974 2.3376 
0 4.586 2.3376 0 -4.586 2.3376 0 4.198 2.3376 
0 -4.198 2.3376 0 5.362 1.71694 0 5.75 1.71694 
0 -5.362 1.71694 0 -5.75 1.71694 0 4.974 1.71694 
0 -4.974 1.71694 0 4.586 1.71694 0 -4.586 1.71694 
0 4.198 1.71694 0 -4.198 1.71694 0 5.362 1.12111 
0 5.75 1.12111 0 -5.362 1.12111 0 -5.75 1.12111 
0 4.974 1.12111 0 -4.974 1.12111 0 4.586 1.12111 
[...]
CELL_DATA 756
PEDIGREE_IDS PedigreeElementId int
271 271 272 272 273 273 306 306 307 
307 308 308 325 325 326 326 327 327 
360 360 361 361 362 362 379 379 380 
380 381 381 414 414 415 415 416 416 
433 433 434 434 435 435 468 468 469 
469 470 470 487 487 488 488 489 489 
522 522 523 523 524 524 541 541 542 
542 543 543 576 576 577 577 578 578 
595 595 596 596 597 597 630 630 631 
631 632 632 649 649 650 650 651 651 
684 684 685 685 686 686 703 703 704 
704 705 705 738 738 739 739 740 740 
757 757 758 758 759 759 792 792 793 
793 794 794 811 811 812 812 813 813 
846 846 847 847 848 848 865 865 866 
866 867 867 900 900 901 901 902 902 
919 919 919 920 920 920 921 921 921 
954 954 954 955 955 955 956 956 956 
1027 1027 1028 1028 1029 1029 1030 1030 1031 
1031 1032 1032 1033 1033 1034 1034 1035 1035 
1036 1036 1037 1037 1038 1038 1092 1092 1093 
1093 1094 1094 1095 1095 1096 1096 1097 1097 
1098 1098 1099 1099 1100 1100 1101 1101 1102 
1102 1103 1103 1157 1157 1158 1158 1159 1159 
1160 1160 1161 1161 1162 1162 1163 1163 1164 
1164 1165 1165 1166 1166 1167 1167 1168 1168 
1222 1222 1223 1223 1224 1224 1225 1225 1226 
1226 1227 1227 1228 1228 1229 1229 1230 1230 
1231 1231 1232 1232 1233 1233 1287 1287 1288 
1288 1289 1289 1290 1290 1291 1291 1292 1292 
1293 1293 1294 1294 1295 1295 1296 1296 1297 
1297 1298 1298 1352 1352 1353 1353 1354 1354 
1355 1355 1356 1356 1357 1357 1358 1358 1359 
1359 1360 1360 1361 1361 1362 1362 1363 1363 
1417 1417 1418 1418 1419 1419 1420 1420 1421 
1421 1422 1422 1423 1423 1424 1424 1425 1425 
1426 1426 1427 1427 1428 1428 1482 1482 1483 
1483 1484 1484 1485 1485 1486 1486 1487 1487 
1488 1488 1489 1489 1490 1490 1491 1491 1492 
1492 1493 1493 1547 1547 1548 1548 1549 1549 
1550 1550 1551 1551 1552 1552 1553 1553 1554 
1554 1555 1555 1556 1556 1557 1557 1558 1558 
1612 1612 1613 1613 1614 1614 1615 1615 1616 
1616 1617 1617 1618 1618 1619 1619 1620 1620 
1621 1621 1622 1622 1623 1623 1677 1677 1678 
1678 1679 1679 1680 1680 1681 1681 1682 1682 
1683 1683 1684 1684 1685 1685 1686 1686 1687 
1687 1688 1688 1742 1742 1743 1743 1744 1744 
1745 1745 1746 1746 1747 1747 1748 1748 1749 
1749 1750 1750 1751 1751 1752 1752 1753 1753 
1807 1807 1807 1808 1808 1808 1809 1809 1809 
1810 1810 1810 1811 1811 1811 1812 1812 1812 
1813 1813 1813 1814 1814 1814 1815 1815 1815 
1816 1816 1816 1817 1817 1817 1818 1818 1818 
1937 1937 1954 1954 1955 1955 1956 1956 1957 
1957 1958 1958 1959 1959 1960 1960 1961 1961 
1978 1978 2027 2027 2044 2044 2045 2045 2046 
2046 2047 2047 2048 2048 2049 2049 2050 2050 
2051 2051 2068 2068 2117 2117 2134 2134 2135 
2135 2136 2136 2137 2137 2138 2138 2139 2139 
2140 2140 2141 2141 2158 2158 2207 2207 2224 
2224 2225 2225 2226 2226 2227 2227 2228 2228 
2229 2229 2230 2230 2231 2231 2248 2248 2297 
2297 2314 2314 2315 2315 2316 2316 2317 2317 
2318 2318 2319 2319 2320 2320 2321 2321 2338 
2338 2387 2387 2404 2404 2405 2405 2406 2406 
2407 2407 2408 2408 2409 2409 2410 2410 2411 
2411 2428 2428 2477 2477 2494 2494 2495 2495 
2496 2496 2497 2497 2498 2498 2499 2499 2500 
2500 2501 2501 2518 2518 2567 2567 2584 2584 
2585 2585 2586 2586 2587 2587 2588 2588 2589 
2589 2590 2590 2591 2591 2608 2608 2657 2657 
2674 2674 2675 2675 2676 2676 2677 2677 2678 
2678 2679 2679 2680 2680 2681 2681 2698 2698 
2747 2747 2764 2764 2765 2765 2766 2766 2767 
2767 2768 2768 2769 2769 2770 2770 2771 2771 
2788 2788 2837 2837 2854 2854 2855 2855 2856 
2856 2857 2857 2858 2858 2859 2859 2860 2860 
2861 2861 2878 2878 2927 2927 2944 2944 2945 
2945 2946 2946 2947 2947 2948 2948 2949 2949 
2950 2950 2951 2951 2968 2968 3017 3017 3017 
3034 3034 3034 3035 3035 3035 3036 3036 3036 
3037 3037 3037 3038 3038 3038 3039 3039 3039 
3040 3040 3040 3041 3041 3041 3058 3058 3058 

FIELD FieldData 2
ObjectId 1 756 int
1 1 1 1 1 1 1 1 1 
1 1 1 1 1 1 1 1 1 
1 1 1 1 1 1 1 1 1 
1 1 1 1 1 1 1 1 1 
1 1 1 1 1 1 1 1 1 
1 1 1 1 1 1 1 1 1 
1 1 1 1 1 1 1 1 1 
1 1 1 1 1 1 1 1 1 
1 1 1 1 1 1 1 1 1 
1 1 1 1 1 1 1 1 1 
1 1 1 1 1 1 1 1 1 
1 1 1 1 1 1 1 1 1 
1 1 1 1 1 1 1 1 1 
1 1 1 1 1 1 1 1 1 
1 1 1 1 1 1 1 1 1 
1 1 1 1 1 1 1 1 1 
1 1 1 1 1 1 1 1 1 
1 1 1 1 1 1 1 1 1 
1 1 1 1 1 1 1 1 1 
1 1 1 1 1 1 1 1 1 
1 1 1 1 1 1 1 1 1 
1 1 1 1 1 1 1 1 1 
1 1 1 1 1 1 1 1 1 
1 1 1 1 1 1 1 1 1 
1 1 1 1 1 1 1 1 1 
1 1 1 1 1 1 1 1 1 
1 1 1 1 1 1 1 1 1 
1 1 1 1 1 1 1 1 1 
1 1 1 1 1 1 1 1 1 
1 1 1 1 1 1 1 1 1 
1 1 1 1 1 1 1 1 1 
1 1 1 1 1 1 1 1 1 
1 1 1 1 1 1 1 1 1 
1 1 1 1 1 1 1 1 1 
1 1 1 1 1 1 1 1 1 
1 1 1 1 1 1 1 1 1 
1 1 1 1 1 1 1 1 1 
1 1 1 1 1 1 1 1 1 
1 1 1 1 1 1 1 1 1 
1 1 1 1 1 1 1 1 1 
1 1 1 1 1 1 1 1 1 
1 1 1 1 1 1 1 1 1 
1 1 1 1 1 1 1 1 1 
1 1 1 1 1 1 1 1 1 
1 1 1 1 1 1 1 1 1 
1 1 1 1 1 1 1 1 1 
1 1 1 1 1 1 1 1 1 
1 1 1 1 1 1 1 1 1 
1 1 1 1 1 1 1 1 1 
1 1 1 1 1 1 1 1 1 
1 1 1 1 1 1 1 1 1 
1 1 1 1 1 1 1 1 1 
1 1 1 1 1 1 1 1 1 
1 1 1 1 1 1 1 1 1 
1 1 1 1 1 1 1 1 1 
1 1 1 1 1 1 1 1 1 
1 1 1 1 1 1 1 1 1 
1 1 1 1 1 1 1 1 1 
1 1 1 1 1 1 1 1 1 
1 1 1 1 1 1 1 1 1 
1 1 1 1 1 1 1 1 1 
1 1 1 1 1 1 1 1 1 
1 1 1 1 1 1 1 1 1 
1 1 1 1 1 1 1 1 1 
1 1 1 1 1 1 1 1 1 
1 1 1 1 1 1 1 1 1 
1 1 1 1 1 1 1 1 1 
1 1 1 1 1 1 1 1 1 
1 1 1 1 1 1 1 1 1 
1 1 1 1 1 1 1 1 1 
1 1 1 1 1 1 1 1 1 
1 1 1 1 1 1 1 1 1 
1 1 1 1 1 1 1 1 1 
1 1 1 1 1 1 1 1 1 
1 1 1 1 1 1 1 1 1 
1 1 1 1 1 1 1 1 1 
1 1 1 1 1 1 1 1 1 
1 1 1 1 1 1 1 1 1 
1 1 1 1 1 1 1 1 1 
1 1 1 1 1 1 1 1 1 
1 1 1 1 1 1 1 1 1 
1 1 1 1 1 1 1 1 1 
1 1 1 1 1 1 1 1 1 
1 1 1 1 1 1 1 1 1 

FileId 1 756 int
0 0 0 0 0 0 0 0 0 
0 0 0 0 0 0 0 0 0 
0 0 0 0 0 0 0 0 0 
0 0 0 0 0 0 0 0 0 
0 0 0 0 0 0 0 0 0 
0 0 0 0 0 0 0 0 0 
0 0 0 0 0 0 0 0 0 
0 0 0 0 0 0 0 0 0 
0 0 0 0 0 0 0 0 0 
0 0 0 0 0 0 0 0 0 
0 0 0 0 0 0 0 0 0 
0 0 0 0 0 0 0 0 0 
0 0 0 0 0 0 0 0 0 
0 0 0 0 0 0 0 0 0 
0 0 0 0 0 0 0 0 0 
0 0 0 0 0 0 0 0 0 
0 0 0 0 0 0 0 0 0 
0 0 0 0 0 0 0 0 0 
0 0 0 0 0 0 0 0 0 
0 0 0 0 0 0 0 0 0 
0 0 0 0 0 0 0 0 0 
0 0 0 0 0 0 0 0 0 
0 0 0 0 0 0 0 0 0 
0 0 0 0 0 0 0 0 0 
0 0 0 0 0 0 0 0 0 
0 0 0 0 0 0 0 0 0 
0 0 0 0 0 0 0 0 0 
0 0 0 0 0 0 0 0 0 
0 0 0 0 0 0 0 0 0 
0 0 0 0 0 0 0 0 0 
0 0 0 0 0 0 0 0 0 
0 0 0 0 0 0 0 0 0 
0 0 0 0 0 0 0 0 0 
0 0 0 0 0 0 0 0 0 
0 0 0 0 0 0 0 0 0 
0 0 0 0 0 0 0 0 0 
0 0 0 0 0 0 0 0 0 
0 0 0 0 0 0 0 0 0 
0 0 0 0 0 0 0 0 0 
0 0 0 0 0 0 0 0 0 
0 0 0 0 0 0 0 0 0 
0 0 0 0 0 0 0 0 0 
0 0 0 0 0 0 0 0 0 
0 0 0 0 0 0 0 0 0 
0 0 0 0 0 0 0 0 0 
0 0 0 0 0 0 0 0 0 
0 0 0 0 0 0 0 0 0 
0 0 0 0 0 0 0 0 0 
0 0 0 0 0 0 0 0 0 
0 0 0 0 0 0 0 0 0 
0 0 0 0 0 0 0 0 0 
0 0 0 0 0 0 0 0 0 
0 0 0 0 0 0 0 0 0 
0 0 0 0 0 0 0 0 0 
0 0 0 0 0 0 0 0 0 
0 0 0 0 0 0 0 0 0 
0 0 0 0 0 0 0 0 0 
0 0 0 0 0 0 0 0 0 
0 0 0 0 0 0 0 0 0 
0 0 0 0 0 0 0 0 0 
0 0 0 0 0 0 0 0 0 
0 0 0 0 0 0 0 0 0 
0 0 0 0 0 0 0 0 0 
0 0 0 0 0 0 0 0 0 
0 0 0 0 0 0 0 0 0 
0 0 0 0 0 0 0 0 0 
0 0 0 0 0 0 0 0 0 
0 0 0 0 0 0 0 0 0 
0 0 0 0 0 0 0 0 0 
0 0 0 0 0 0 0 0 0 
0 0 0 0 0 0 0 0 0 
0 0 0 0 0 0 0 0 0 
0 0 0 0 0 0 0 0 0 
0 0 0 0 0 0 0 0 0 
0 0 0 0 0 0 0 0 0 
0 0 0 0 0 0 0 0 0 
0 0 0 0 0 0 0 0 0 
0 0 0 0 0 0 0 0 0 
0 0 0 0 0 0 0 0 0 
0 0 0 0 0 0 0 0 0 
0 0 0 0 0 0 0 0 0 
0 0 0 0 0 0 0 0 0 
0 0 0 0 0 0 0 0 0 
0 0 0 0 0 0 0 0 0 

POINT_DATA 434
VECTORS V double
0 0 -5 0 -0.36769 -5.58578 0 0 -5 
0 -0.112533 -5.6786 0 0 -5 0 -0.601091 -5.49525 
0 0 -5 0 -0.800759 -5.40661 0 0 -5 
0 0 -5 0 0.36769 -5.58578 0 0.112533 -5.6786 
0 0 -5 0 0.601091 -5.49525 0 0 -5 
0 0.800759 -5.40661 0 -0.862256 -6.80847 0 -1.09878 -6.61752 
0 -1.32108 -6.3609 0 -1.51024 -6.05661 0 0.862255 -6.80847 
0 1.09878 -6.61752 0 1.32108 -6.36091 0 1.51024 -6.05661 
0 -1.58327 -7.45608 0 -1.77666 -7.16735 0 -1.93951 -6.77947 
0 -2.0651 -6.31477 0 1.58327 -7.45608 0 1.77666 -7.16735 
0 1.93951 -6.77947 0 2.0651 -6.31477 0 -1.90309 -7.93673 
0 -2.06632 -7.50284 0 -2.18692 -6.94518 0 -2.25857 -6.29014 
0 1.90309 -7.93673 0 2.06632 -7.50284 0 2.18692 -6.94518 
0 2.25857 -6.29014 0 -1.84959 -8.28071 0 -1.95829 -7.66739 
0 -2.01885 -6.92401 0 -2.03248 -6.08051 0 1.84959 -8.28071 
0 1.95829 -7.66739 0 2.01885 -6.92401 0 2.03248 -6.08051 
0 -1.52603 -8.5144 0 -1.55665 -7.72691 0 -1.54367 -6.81108 
0 -1.49395 -5.80107 0 1.52603 -8.5144 0 1.55665 -7.72691 
0 1.54367 -6.81108 0 1.49395 -5.80107 0 -1.06499 -8.65113 
0 -1.00501 -7.7155 0 -0.911659 -6.66324 0 -0.799344 -5.53131 
0 1.06499 -8.65113 0 1.00501 -7.7155 0 0.911659 -6.66324 
0 0.799344 -5.53131 0 -0.619531 -8.74528 0 -0.471822 -7.69436 
0 -0.302712 -6.54399 0 -0.134273 -5.33374 0 0.619531 -8.74528 
0 0.471822 -7.69436 0 0.302712 -6.54399 0 0.134272 -5.33374 
0 -0.37838 -8.85294 0 -0.151549 -7.69682 0 0.0870881 -6.4679 
0 0.310952 -5.2053 0 0.37838 -8.85294 0 0.151549 -7.69682 
0 -0.0870881 -6.4679 0 -0.310952 -5.2053 0 -0.54532 -8.95036 
0 -0.245821 -7.67248 0 0.0782394 -6.34527 0 0.385599 -5.025 
0 0.54532 -8.95036 0 0.245821 -7.67248 0 -0.0782392 -6.34527 
0 -0.385599 -5.025 0 -1.27623 -8.93347 0 -0.848707 -7.3868 
0 -0.39018 -5.90731 0 0.0659004 -4.51709 0 1.27623 -8.93347 
0 0.848707 -7.38681 0 0.39018 -5.90731 0 -0.0658998 -4.51709 
0 -2.40993 -8.20638 0 -1.85424 -6.45878 0 -1.12129 -4.74241 
0 -0.344288 -3.27632 0 2.40993 -8.20638 0 1.85424 -6.45879 
0 1.12129 -4.74241 0 0.344288 -3.27632 0 -2.24946 -6.60363 
0 -2.68749 -7.98119 0 -1.95749 -5.92536 0 -1.37974 -4.5724 
0 -1.09246 -4.19748 0 -0.479981 -3.04181 0 -0.283789 -2.85446 
0 2.68749 -7.98119 0 2.24946 -6.60363 0 1.95749 -5.92536 
0 1.37974 -4.5724 0 1.09246 -4.19748 0 0.479981 -3.04181 
0 0.283789 -2.85446 0 0 -5 0 -1.17026 -5.12371 
0 0 -5 0 -1.33203 -4.82078 0 0 -5 
0 -1.25564 -4.54902 0 0 -5 0 -0.967987 -4.33373 
0 0 -5 0 -0.521314 -4.18822 0 0 -5 
0 -1.26849e-08 -4.13539 0 0 -5 0 0.521314 -4.18822 
0 0 -5 0 0.967987 -4.33373 0 0 -5 
0 1.25564 -4.54902 0 0 -5 0 1.33203 -4.82078 
0 0 -5 0 1.17026 -5.12371 0 -1.8506 -5.15456 
0 -1.95216 -4.20858 0 -1.77211 -3.33467 0 -1.34037 -2.63225 
0 -0.716785 -2.18057 0 1.45885e-08 -2.025 0 0.716785 -2.18057 
0 1.34037 -2.63225 0 1.77211 -3.33467 0 1.95216 -4.20858 
0 1.8506 -5.15456 0 -2.24948 -4.85581 0 -2.21673 -3.27721 
0 -1.92684 -1.81184 0 -1.41897 -0.63476 0 -0.748385 0.122742 
0 7.82867e-09 0.383741 0 0.748385 0.122742 0 1.41897 -0.634759 
0 1.92684 -1.81184 0 2.21673 -3.27721 0 2.24948 -4.85581 
0 -2.2854 -4.28059 0 -2.12091 -2.14102 0 -1.76098 -0.177925 
0 -1.25473 1.38453 0 -0.649249 2.38197 0 2.7367e-09 2.72436 
0 0.649249 2.38197 0 1.25473 1.38453 0 1.76098 -0.177925 
0 2.12091 -2.14102 0 2.2854 -4.28059 0 -1.92202 -3.57869 
0 -1.6656 -0.996357 0 -1.30107 1.32175 0 -0.882827 3.13903 
0 -0.443514 4.28709 0 1.48709e-08 4.6793 0 0.443515 4.28709 
0 0.882827 3.13904 0 1.30107 1.32175 0 1.6656 -0.996356 
0 1.92202 -3.57869 0 -1.25936 -2.91104 0 -0.951876 -0.0345674 
0 -0.642881 2.48182 0 -0.379016 4.4197 0 -0.172514 5.62892 
0 1.75982e-08 6.03968 0 0.172514 5.62892 0 0.379016 4.4197 
0 0.642881 2.48182 0 0.951875 -0.0345669 0 1.25936 -2.91104 
0 -0.461934 -2.39478 0 -0.135923 0.615951 0 0.0819854 3.17979 
0 0.161866 5.11671 0 0.114422 6.30933 0 3.48114e-08 6.7119 
0 -0.114422 6.30933 0 -0.161866 5.11671 0 -0.0819858 3.17979 
0 0.135922 0.615951 0 0.461934 -2.39478 0 0.289381 -2.0837 
0 0.624645 0.918217 0 0.75108 3.39782 0 0.657335 5.22894 
0 0.376192 6.3384 0 5.27434e-08 6.7099 0 -0.376192 6.3384 
0 -0.657335 5.22894 0 -0.751081 3.39782 0 -0.624646 0.918217 
0 -0.289381 -2.0837 0 0.837849 -1.93764 0 1.21269 0.933303 
0 1.28401 3.20676 0 1.05743 4.8322 0 0.58872 5.795 
0 6.05376e-08 6.11382 0 -0.58872 5.795 0 -1.05743 4.8322 
0 -1.28401 3.20676 0 -1.21269 0.933303 0 -0.83785 -1.93764 
0 1.10119 -1.80686 0 1.5878 0.797784 0 1.65716 2.72314 
0 1.34497 4.03349 0 0.742129 4.78561 0 6.10772e-08 5.03107 
0 -0.742129 4.78561 0 -1.34497 4.03349 0 -1.65716 2.72314 
0 -1.5878 0.797784 0 -1.10119 -1.80686 0 1.14054 -1.46714 
0 1.79536 0.647539 0 1.8742 2.04728 0 1.50352 2.94057 
0 0.822434 3.43472 0 5.44749e-08 3.59353 0 -0.822434 3.43472 
0 -1.50352 2.94057 0 -1.8742 2.04728 0 -1.79536 0.647539 
0 -1.14054 -1.46714 0 1.17537 -0.808281 0 1.85125 0.486751 
0 1.8657 1.23997 0 1.45699 1.69103 0 0.784729 1.9337 
0 4.43317e-08 2.01166 0 -0.784729 1.9337 0 -1.45699 1.69103 
0 -1.8657 1.23997 0 -1.85125 0.486751 0 -1.17537 -0.80828 
0 0.914101 -0.908993 0 1.16454 -0.681285 0 1.69731 0.339541 
0 1.77189 0.43003 0 1.78328 1.02377 0 1.76188 1.07038 
0 1.43971 1.42594 0 1.36684 1.45211 0 0.836922 1.64339 
0 0.73317 1.65865 0 0.114597 1.7201 0 4.02174e-08 1.72557 
0 -0.618574 1.66412 0 -0.73317 1.65865 0 -1.26309 1.46736 
0 -1.36684 1.45211 0 -1.68901 1.09655 0 -1.76188 1.07038 
0 -1.75049 0.476646 0 -1.77189 0.43003 0 -1.23912 -0.590796 
0 -1.16454 -0.681285 0 0.0333523 -2.62675 0 0 -5 
0 0 0 0 0 -5 0 -0.851964 -3.81562 
0 0 -5 0 0 -5 0 0 0 
0 0.851964 -3.81562 0 0 -5 0 -1.08509 -5.29275 
0 0 -5 0 1.08509 -5.29275 0 0 -5 
0 -0.852058 -5.75819 0 0 -5 0 0.852058 -5.75819 
0 0 -5 0 -0.394966 -5.80441 0 0 -5 
0 0.394966 -5.80441 0 -0.00611974 -3.25719 0 0 0 
0 0.00611974 -3.25719 0 0 0 0 -0.0349869 -5.43525 
0 0.0349869 -5.43525 0 0.108582 -6.55845 0 -0.108582 -6.55845 
0 0.432827 -6.92489 0 -0.432828 -6.92489 0 0.168816 -3.46748 
0 0 0 0 -0.168816 -3.46748 0 0 0 
0 0.454158 -5.81478 0 -0.454159 -5.81478 0 0.801712 -7.15035 
0 -0.801712 -7.15035 0 1.18493 -7.63167 0 -1.18493 -7.63167 
0 0.236432 -4.02331 0 0 0 0 -0.236432 -4.02331 
0 0 0 0 0.62553 -6.59519 0 -0.62553 -6.59519 
0 1.08203 -7.94983 0 -1.08203 -7.94983 0 1.5193 -8.32249 
0 -1.5193 -8.32249 0 0.262137 -4.66435 0 0 0 
0 -0.262137 -4.66435 0 0 0 0 0.678493 -7.47627 
0 -0.678493 -7.47627 0 1.13816 -8.79849 0 -1.13816 -8.79849 
0 1.54143 -8.9678 0 -1.54143 -8.9678 0 0.264264 -5.31964 
0 0 0 0 -0.264264 -5.31964 0 0 0 
0 0.660617 -8.34083 0 -0.660617 -8.34083 0 1.05831 -9.58713 
0 -1.0583 -9.58713 0 1.35653 -9.51689 0 -1.35653 -9.51689 
0 0.257136 -5.95447 0 0 0 0 -0.257136 -5.95447 
0 0 0 0 0.610548 -9.13597 0 -0.610548 -9.13597 
0 0.9109 -10.2668 0 -0.9109 -10.2668 0 1.06656 -9.9455 
0 -1.06656 -9.9455 0 0.256141 -6.57935 0 0 0 
0 -0.256141 -6.57935 0 0 0 0 0.571632 -9.87731 
0 -0.571632 -9.87731 0 0.776023 -10.8639 0 -0.776022 -10.8639 
0 0.79025 -10.295 0 -0.79025 -10.295 0 0.286185 -7.25102 
0 0 0 0 -0.286185 -7.25102 0 0 0 
0 0.609927 -10.6482 0 -0.609927 -10.6482 0 0.767882 -11.4689 
0 -0.767882 -11.4689 0 0.685942 -10.6442 0 -0.685942 -10.6442 
0 0.389485 -8.08659 0 0 0 0 -0.389485 -8.08659 
0 0 0 0 0.827105 -11.6033 0 -0.827106 -11.6033 
0 1.04768 -12.2179 0 -1.04768 -12.2179 0 0.951688 -11.0686 
0 -0.951689 -11.0686 0 0.609834 -9.26241 0 0 0 
0 -0.609834 -9.26241 0 0 0 0 1.32995 -12.9497 
0 -1.32995 -12.9497 0 1.77233 -13.2416 0 -1.77233 -13.2416 
0 1.75934 -11.5531 0 -1.75934 -11.5531 0 0.88626 -10.9345 
0 0 0 0 -0.88626 -10.9345 0 0 0 
0 2.01638 -14.8927 0 -2.01638 -14.8927 0 2.89982 -14.6727 
0 -2.89983 -14.6727 0 3.09637 -11.9961 0 -3.09637 -11.9961 
0 0.193122 -2.72421 0 0.891729 -11.3434 0 0 0 
0 -0.891729 -11.3434 0 -0.193122 -2.72421 0 0 0 
0 1.17984 -12.292 0 2.07068 -15.4121 0 -2.07068 -15.4121 
0 -1.17984 -12.292 0 2.34871 -15.2559 0 3.0451 -15.0825 
0 -3.0451 -15.0825 0 -2.34871 -15.2559 0 3.17901 -14.1655 
0 3.33394 -12.0556 0 -3.33394 -12.0556 0 -3.17901 -14.1655 
0 3.22859 -10.9685 0 -3.22859 -10.9685 
FIELD FieldData 6
Temp 1 434 double
303.15 304.867 303.15 304.242 303.15 305.466 303.15 306.043 303.15 
303.15 304.867 304.242 303.15 305.466 303.15 306.043 306.972 308.269 
309.544 310.797 306.972 308.269 309.544 310.797 312.189 314.271 316.359 
318.445 312.189 314.271 316.359 318.445 320.302 323.412 326.557 329.721 
320.302 323.412 326.557 329.721 331.763 336.226 340.741 345.283 331.763 
336.226 340.741 345.283 347.32 353.505 359.735 365.971 347.32 353.505 
359.735 365.971 368.128 376.439 384.739 392.975 368.128 376.439 384.739 
392.975 395.79 406.643 417.36 427.858 395.79 406.643 417.36 427.858 
432.299 446.121 459.527 472.457 432.299 446.121 459.527 472.457 480.006 
497.067 513.381 528.75 480.006 497.067 513.381 528.75 541.233 562.234 
581.31 598.796 541.233 562.234 581.31 598.796 620.747 644.244 666.348 
685.443 620.747 644.244 666.348 685.443 659.982 641.46 667.522 684.946 
689.761 704.812 708.142 641.46 659.982 667.522 684.946 689.761 704.812 
708.142 303.15 307.46 303.15 308.724 303.15 309.794 303.15 310.618 
303.15 311.137 303.15 311.314 303.15 311.137 303.15 310.618 303.15 
309.794 303.15 308.724 303.15 307.46 313.976 316.897 319.419 321.382 
322.628 323.056 322.628 321.382 319.419 316.897 313.976 323.858 328.951 
333.411 336.906 339.133 339.898 339.133 336.906 333.411 328.951 323.858 
337.999 345.847 352.728 358.12 361.548 362.725 361.548 358.12 352.728 
345.847 337.999 357.129 368.287 377.984 385.519 390.279 391.907 390.279 
385.519 377.984 368.287 357.129 382.058 396.962 409.702 419.47 425.575 
427.653 425.575 419.47 409.702 396.962 382.058 413.862 432.74 448.52 
460.404 467.737 470.216 467.737 460.404 448.52 432.74 413.862 453.881 
476.65 495.147 508.77 517.041 519.815 517.041 508.77 495.147 476.65 
453.881 503.579 529.681 550.128 564.768 573.482 576.376 573.482 564.768 
550.128 529.681 503.579 564.31 592.483 613.501 628.013 636.447 639.217 
636.447 628.013 613.501 592.483 564.31 637.13 664.968 684.379 697.212 
704.481 706.84 704.481 697.212 684.379 664.968 637.13 722.373 745.577 
760.53 770.01 775.259 776.946 775.259 770.01 760.53 745.577 722.374 
737.253 742.47 760.761 763.525 775.312 776.992 784.465 785.501 789.638 
790.204 791.533 791.714 790.384 790.204 786.066 785.501 778.028 776.992 
765.206 763.525 745.235 742.47 713.359 303.15 293.15 303.15 297.067 
303.15 303.15 293.15 297.067 303.15 299.6 303.15 299.6 303.15 
301.454 303.15 301.454 303.15 302.949 303.15 302.949 295.96 293.15 
295.96 293.15 298.927 298.927 301.757 301.757 304.426 304.426 296.779 
293.15 296.779 293.15 300.513 300.513 304.345 304.345 308.241 308.241 
298.197 293.15 298.197 293.15 303.442 303.442 308.867 308.868 314.488 
314.488 300.31 293.15 300.31 293.15 307.732 307.732 315.429 315.429 
323.44 323.44 303.286 293.15 303.286 293.15 313.734 313.734 324.53 
324.53 335.731 335.731 307.449 293.15 307.449 293.15 322.049 322.049 
337.012 337.012 352.396 352.396 313.29 293.15 313.29 293.15 333.583 
333.583 354.113 354.113 374.906 374.906 321.498 293.15 321.498 293.15 
349.566 349.566 377.468 377.468 405.172 405.172 332.935 293.15 332.935 
293.15 371.472 371.472 409.034 409.034 445.379 445.379 348.399 293.15 
348.399 293.15 400.694 400.694 450.629 450.629 498.067 498.067 367.661 
293.15 367.661 293.15 437.265 437.265 503.846 503.846 564.874 564.874 
313.204 371.938 293.15 371.938 313.204 293.15 390.692 445.559 445.559 
390.692 464.281 516.764 516.764 464.281 535.692 583.798 583.798 535.692 
597.418 597.418 
Pres 1 434 double
0.011352 0.0147189 0.0113914 0.0147053 0.0114046 0.0147215 0.0115372 0.0147202 0.011352 
0.0113914 0.0147189 0.0147053 0.0114046 0.0147215 0.0115372 0.0147202 0.0174363 0.0174555 
0.0174848 0.0175342 0.0174363 0.0174555 0.0174848 0.0175343 0.0199525 0.0199974 0.0200314 
0.0200762 0.0199525 0.0199974 0.0200314 0.0200762 0.0221581 0.0222006 0.022236 0.022287 
0.0221581 0.0222006 0.022236 0.022287 0.0240647 0.0241035 0.0241312 0.0241677 0.0240647 
0.0241035 0.0241312 0.0241677 0.0256452 0.0256713 0.0256868 0.0257037 0.0256452 0.0256713 
0.0256869 0.0257037 0.0268991 0.0269086 0.0269068 0.0268941 0.0268991 0.0269086 0.0269068 
0.0268942 0.0278124 0.0277999 0.027777 0.0277285 0.0278124 0.0277999 0.027777 0.0277285 
0.0283649 0.0283262 0.0282798 0.0281935 0.0283649 0.0283262 0.0282798 0.0281935 0.0285141 
0.028464 0.028403 0.0282847 0.0285141 0.028464 0.028403 0.0282847 0.0282745 0.0282133 
0.0281477 0.0280356 0.0282745 0.0282133 0.0281477 0.0280356 0.0274951 0.0276367 0.0276618 
0.027579 0.0274951 0.0276367 0.0276618 0.027579 0.0275431 0.0274315 0.0275561 0.0275759 
0.0275735 0.0275082 0.0274861 0.0274315 0.0275431 0.0275561 0.0275759 0.0275735 0.0275082 
0.0274861 0.0116633 0.0147798 0.0118263 0.014879 0.0119978 0.0149828 0.012145 0.0150736 
0.0122332 0.0151363 0.0122599 0.0151581 0.0122332 0.0151363 0.012145 0.0150736 0.0119978 
0.0149828 0.0118263 0.014879 0.0116633 0.0147798 0.0176105 0.0177103 0.0178094 0.0178945 